data_Cd3BTB2

_audit_creation_method RASPA-1.0
_audit_creation_date 2021-5-11
_audit_author_name 'hiuki'

_citation_author_name        'B. Mu, Y. Huang and K.S. Walton'
_citation_title              'A metal-organic framework with coordinatively unsaturated metal centers and microporous structure'
_citation_journal_abbrev     'Cryst. Eng. Comm.'
_citation_journal_volume     12
_citation_page_first         2347
_citation_page_last          2349
_citation_year               2010

_cell_length_a    20.919
_cell_length_b    28.784
_cell_length_c    29.5268
_cell_angle_alpha 69.608
_cell_angle_beta  82.476
_cell_angle_gamma 88.043
_cell_volume      16520.1

_symmetry_cell_setting          triclinic
_symmetry_space_group_name_Hall 'P 1'
_symmetry_space_group_name_H-M  'P 1'
_symmetry_Int_Tables_number     1

_symmetry_equiv_pos_as_xyz 'x,y,z'

loop_
_atom_site_label
_atom_site_type_symbol
_atom_site_fract_x
_atom_site_fract_y
_atom_site_fract_z
_atom_site_charge
Cd2      Cd     0.457295000000     0.443835000000     0.405760000000     0          
O1       O      0.378700000000     0.406900000000     0.471150000000     0          
O2       O      0.469950000000     0.428700000000     0.488425000000     0          
O3       O      0.441000000000     0.046350000000     0.442150000000     0          
O4       O      0.445050000000     0.023650000000     0.376500000000     0          
O5       O      0.047000000000     0.445850000000     0.350150000000     0          
O6       O      0.018200000000     0.374050000000     0.404900000000     0          
C1       C      0.332850000000     0.310800000000     0.207050000000     0          
C2       C      0.362700000000     0.268350000000     0.235300000000     0          
H2       H      0.398150000000     0.254850000000     0.220600000000     0          
C3       C      0.341250000000     0.245550000000     0.284800000000     0          
C4       C      0.290850000000     0.266850000000     0.306250000000     0          
H4       H      0.276800000000     0.252050000000     0.340100000000     0          
C5       C      0.260750000000     0.309450000000     0.279050000000     0          
C6       C      0.281250000000     0.330550000000     0.229300000000     0          
H6       H      0.259800000000     0.358800000000     0.210200000000     0          
C7       C      0.354100000000     0.334700000000     0.154200000000     0          
C8       C      0.419050000000     0.343700000000     0.136300000000     0          
H8       H      0.450600000000     0.332900000000     0.158100000000     0          
C9       C      0.438450000000     0.368100000000     0.087350000000     0          
H9       H      0.482900000000     0.375150000000     0.075950000000     0          
C10      C      0.393150000000     0.382500000000     0.054550000000     0          
C11      C      0.328400000000     0.372200000000     0.071900000000     0          
H11      H      0.297250000000     0.380900000000     0.049750000000     0          
C12      C      0.308900000000     0.349300000000     0.121300000000     0          
H12      H      0.264250000000     0.343500000000     0.132800000000     0          
C13      C      0.368850000000     0.197700000000     0.313650000000     0          
C14      C      0.386650000000     0.162300000000     0.292350000000     0          
H14      H      0.384650000000     0.169850000000     0.258600000000     0          
C15      C      0.407350000000     0.115950000000     0.320000000000     0          
H15      H      0.418600000000     0.091950000000     0.305050000000     0          
C16      C      0.411800000000     0.104250000000     0.369200000000     0          
C17      C      0.394900000000     0.139650000000     0.390500000000     0          
H17      H      0.398100000000     0.132250000000     0.424100000000     0          
C18      C      0.373250000000     0.185950000000     0.363050000000     0          
H18      H      0.361400000000     0.209750000000     0.378200000000     0          
C19      C      0.207850000000     0.332400000000     0.302450000000     0          
C20      C      0.164700000000     0.303850000000     0.341300000000     0          
H20      H      0.169200000000     0.268850000000     0.353550000000     0          
C21      C      0.115200000000     0.325750000000     0.362550000000     0          
H21      H      0.086500000000     0.305600000000     0.389350000000     0          
C22      C      0.107100000000     0.376300000000     0.345350000000     0          
C23      C      0.149400000000     0.405250000000     0.306500000000     0          
H23      H      0.144100000000     0.440200000000     0.294050000000     0          
C24      C      0.199750000000     0.383550000000     0.285450000000     0          
H24      H      0.228950000000     0.403900000000     0.259100000000     0          
C25      C      0.414550000000     0.407700000000     0.001750000000     0          
C26      C      0.435100000000     0.054000000000     0.398600000000     0          
C27      C      0.054000000000     0.400100000000     0.368600000000     0          
Cd1      Cd     0.000000000000     0.000000000000     0.000000000000     0          
Cd2      Cd     0.042705000000     0.056165000000     0.094240000000     0          
O1       O      0.121300000000     0.093100000000     0.028850000000     0          
O2       O      0.030050000000     0.071300000000     0.011575000000     0          
O3       O      0.059000000000     0.453650000000     0.057850000000     0          
O4       O      0.054950000000     0.476350000000     0.123500000000     0          
O5       O      0.453000000000     0.054150000000     0.149850000000     0          
O6       O      0.481800000000     0.125950000000     0.095100000000     0          
C1       C      0.167150000000     0.189200000000     0.292950000000     0          
C2       C      0.137300000000     0.231650000000     0.264700000000     0          
H2       H      0.101850000000     0.245150000000     0.279400000000     0          
C3       C      0.158750000000     0.254450000000     0.215200000000     0          
C4       C      0.209150000000     0.233150000000     0.193750000000     0          
H4       H      0.223200000000     0.247950000000     0.159900000000     0          
C5       C      0.239250000000     0.190550000000     0.220950000000     0          
C6       C      0.218750000000     0.169450000000     0.270700000000     0          
H6       H      0.240200000000     0.141200000000     0.289800000000     0          
C7       C      0.145900000000     0.165300000000     0.345800000000     0          
C8       C      0.080950000000     0.156300000000     0.363700000000     0          
H8       H      0.049400000000     0.167100000000     0.341900000000     0          
C9       C      0.061550000000     0.131900000000     0.412650000000     0          
H9       H      0.017100000000     0.124850000000     0.424050000000     0          
C10      C      0.106850000000     0.117500000000     0.445450000000     0          
C11      C      0.171600000000     0.127800000000     0.428100000000     0          
H11      H      0.202750000000     0.119100000000     0.450250000000     0          
C12      C      0.191100000000     0.150700000000     0.378700000000     0          
H12      H      0.235750000000     0.156500000000     0.367200000000     0          
C13      C      0.131150000000     0.302300000000     0.186350000000     0          
C14      C      0.113350000000     0.337700000000     0.207650000000     0          
H14      H      0.115350000000     0.330150000000     0.241400000000     0          
C15      C      0.092650000000     0.384050000000     0.180000000000     0          
H15      H      0.081400000000     0.408050000000     0.194950000000     0          
C16      C      0.088200000000     0.395750000000     0.130800000000     0          
C17      C      0.105100000000     0.360350000000     0.109500000000     0          
H17      H      0.101900000000     0.367750000000     0.075900000000     0          
C18      C      0.126750000000     0.314050000000     0.136950000000     0          
H18      H      0.138600000000     0.290250000000     0.121800000000     0          
C19      C      0.292150000000     0.167600000000     0.197550000000     0          
C20      C      0.335300000000     0.196150000000     0.158700000000     0          
H20      H      0.330800000000     0.231150000000     0.146450000000     0          
C21      C      0.384800000000     0.174250000000     0.137450000000     0          
H21      H      0.413500000000     0.194400000000     0.110650000000     0          
C22      C      0.392900000000     0.123700000000     0.154650000000     0          
C23      C      0.350600000000     0.094750000000     0.193500000000     0          
H23      H      0.355900000000     0.059800000000     0.205950000000     0          
C24      C      0.300250000000     0.116450000000     0.214550000000     0          
H24      H      0.271050000000     0.096100000000     0.240900000000     0          
C25      C      0.085450000000     0.092300000000     0.498250000000     0          
C26      C      0.064900000000     0.446000000000     0.101400000000     0          
C27      C      0.446000000000     0.099900000000     0.131400000000     0          
Cd2      Cd     0.457295000000     0.443835000000     0.905760000000     0          
O1       O      0.378700000000     0.406900000000     0.971150000000     0          
O2       O      0.469950000000     0.428700000000     0.988425000000     0          
O3       O      0.441000000000     0.046350000000     0.942150000000     0          
O4       O      0.445050000000     0.023650000000     0.876500000000     0          
O5       O      0.047000000000     0.445850000000     0.850150000000     0          
O6       O      0.018200000000     0.374050000000     0.904900000000     0          
C1       C      0.332850000000     0.310800000000     0.707050000000     0          
C2       C      0.362700000000     0.268350000000     0.735300000000     0          
H2       H      0.398150000000     0.254850000000     0.720600000000     0          
C3       C      0.341250000000     0.245550000000     0.784800000000     0          
C4       C      0.290850000000     0.266850000000     0.806250000000     0          
H4       H      0.276800000000     0.252050000000     0.840100000000     0          
C5       C      0.260750000000     0.309450000000     0.779050000000     0          
C6       C      0.281250000000     0.330550000000     0.729300000000     0          
H6       H      0.259800000000     0.358800000000     0.710200000000     0          
C7       C      0.354100000000     0.334700000000     0.654200000000     0          
C8       C      0.419050000000     0.343700000000     0.636300000000     0          
H8       H      0.450600000000     0.332900000000     0.658100000000     0          
C9       C      0.438450000000     0.368100000000     0.587350000000     0          
H9       H      0.482900000000     0.375150000000     0.575950000000     0          
C10      C      0.393150000000     0.382500000000     0.554550000000     0          
C11      C      0.328400000000     0.372200000000     0.571900000000     0          
H11      H      0.297250000000     0.380900000000     0.549750000000     0          
C12      C      0.308900000000     0.349300000000     0.621300000000     0          
H12      H      0.264250000000     0.343500000000     0.632800000000     0          
C13      C      0.368850000000     0.197700000000     0.813650000000     0          
C14      C      0.386650000000     0.162300000000     0.792350000000     0          
H14      H      0.384650000000     0.169850000000     0.758600000000     0          
C15      C      0.407350000000     0.115950000000     0.820000000000     0          
H15      H      0.418600000000     0.091950000000     0.805050000000     0          
C16      C      0.411800000000     0.104250000000     0.869200000000     0          
C17      C      0.394900000000     0.139650000000     0.890500000000     0          
H17      H      0.398100000000     0.132250000000     0.924100000000     0          
C18      C      0.373250000000     0.185950000000     0.863050000000     0          
H18      H      0.361400000000     0.209750000000     0.878200000000     0          
C19      C      0.207850000000     0.332400000000     0.802450000000     0          
C20      C      0.164700000000     0.303850000000     0.841300000000     0          
H20      H      0.169200000000     0.268850000000     0.853550000000     0          
C21      C      0.115200000000     0.325750000000     0.862550000000     0          
H21      H      0.086500000000     0.305600000000     0.889350000000     0          
C22      C      0.107100000000     0.376300000000     0.845350000000     0          
C23      C      0.149400000000     0.405250000000     0.806500000000     0          
H23      H      0.144100000000     0.440200000000     0.794050000000     0          
C24      C      0.199750000000     0.383550000000     0.785450000000     0          
H24      H      0.228950000000     0.403900000000     0.759100000000     0          
C25      C      0.414550000000     0.407700000000     0.501750000000     0          
C26      C      0.435100000000     0.054000000000     0.898600000000     0          
C27      C      0.054000000000     0.400100000000     0.868600000000     0          
Cd1      Cd     0.000000000000     0.000000000000     0.500000000000     0          
Cd2      Cd     0.042705000000     0.056165000000     0.594240000000     0          
O1       O      0.121300000000     0.093100000000     0.528850000000     0          
O2       O      0.030050000000     0.071300000000     0.511575000000     0          
O3       O      0.059000000000     0.453650000000     0.557850000000     0          
O4       O      0.054950000000     0.476350000000     0.623500000000     0          
O5       O      0.453000000000     0.054150000000     0.649850000000     0          
O6       O      0.481800000000     0.125950000000     0.595100000000     0          
C1       C      0.167150000000     0.189200000000     0.792950000000     0          
C2       C      0.137300000000     0.231650000000     0.764700000000     0          
H2       H      0.101850000000     0.245150000000     0.779400000000     0          
C3       C      0.158750000000     0.254450000000     0.715200000000     0          
C4       C      0.209150000000     0.233150000000     0.693750000000     0          
H4       H      0.223200000000     0.247950000000     0.659900000000     0          
C5       C      0.239250000000     0.190550000000     0.720950000000     0          
C6       C      0.218750000000     0.169450000000     0.770700000000     0          
H6       H      0.240200000000     0.141200000000     0.789800000000     0          
C7       C      0.145900000000     0.165300000000     0.845800000000     0          
C8       C      0.080950000000     0.156300000000     0.863700000000     0          
H8       H      0.049400000000     0.167100000000     0.841900000000     0          
C9       C      0.061550000000     0.131900000000     0.912650000000     0          
H9       H      0.017100000000     0.124850000000     0.924050000000     0          
C10      C      0.106850000000     0.117500000000     0.945450000000     0          
C11      C      0.171600000000     0.127800000000     0.928100000000     0          
H11      H      0.202750000000     0.119100000000     0.950250000000     0          
C12      C      0.191100000000     0.150700000000     0.878700000000     0          
H12      H      0.235750000000     0.156500000000     0.867200000000     0          
C13      C      0.131150000000     0.302300000000     0.686350000000     0          
C14      C      0.113350000000     0.337700000000     0.707650000000     0          
H14      H      0.115350000000     0.330150000000     0.741400000000     0          
C15      C      0.092650000000     0.384050000000     0.680000000000     0          
H15      H      0.081400000000     0.408050000000     0.694950000000     0          
C16      C      0.088200000000     0.395750000000     0.630800000000     0          
C17      C      0.105100000000     0.360350000000     0.609500000000     0          
H17      H      0.101900000000     0.367750000000     0.575900000000     0          
C18      C      0.126750000000     0.314050000000     0.636950000000     0          
H18      H      0.138600000000     0.290250000000     0.621800000000     0          
C19      C      0.292150000000     0.167600000000     0.697550000000     0          
C20      C      0.335300000000     0.196150000000     0.658700000000     0          
H20      H      0.330800000000     0.231150000000     0.646450000000     0          
C21      C      0.384800000000     0.174250000000     0.637450000000     0          
H21      H      0.413500000000     0.194400000000     0.610650000000     0          
C22      C      0.392900000000     0.123700000000     0.654650000000     0          
C23      C      0.350600000000     0.094750000000     0.693500000000     0          
H23      H      0.355900000000     0.059800000000     0.705950000000     0          
C24      C      0.300250000000     0.116450000000     0.714550000000     0          
H24      H      0.271050000000     0.096100000000     0.740900000000     0          
C25      C      0.085450000000     0.092300000000     0.998250000000     0          
C26      C      0.064900000000     0.446000000000     0.601400000000     0          
C27      C      0.446000000000     0.099900000000     0.631400000000     0          
Cd2      Cd     0.457295000000     0.943835000000     0.405760000000     0          
O1       O      0.378700000000     0.906900000000     0.471150000000     0          
O2       O      0.469950000000     0.928700000000     0.488425000000     0          
O3       O      0.441000000000     0.546350000000     0.442150000000     0          
O4       O      0.445050000000     0.523650000000     0.376500000000     0          
O5       O      0.047000000000     0.945850000000     0.350150000000     0          
O6       O      0.018200000000     0.874050000000     0.404900000000     0          
C1       C      0.332850000000     0.810800000000     0.207050000000     0          
C2       C      0.362700000000     0.768350000000     0.235300000000     0          
H2       H      0.398150000000     0.754850000000     0.220600000000     0          
C3       C      0.341250000000     0.745550000000     0.284800000000     0          
C4       C      0.290850000000     0.766850000000     0.306250000000     0          
H4       H      0.276800000000     0.752050000000     0.340100000000     0          
C5       C      0.260750000000     0.809450000000     0.279050000000     0          
C6       C      0.281250000000     0.830550000000     0.229300000000     0          
H6       H      0.259800000000     0.858800000000     0.210200000000     0          
C7       C      0.354100000000     0.834700000000     0.154200000000     0          
C8       C      0.419050000000     0.843700000000     0.136300000000     0          
H8       H      0.450600000000     0.832900000000     0.158100000000     0          
C9       C      0.438450000000     0.868100000000     0.087350000000     0          
H9       H      0.482900000000     0.875150000000     0.075950000000     0          
C10      C      0.393150000000     0.882500000000     0.054550000000     0          
C11      C      0.328400000000     0.872200000000     0.071900000000     0          
H11      H      0.297250000000     0.880900000000     0.049750000000     0          
C12      C      0.308900000000     0.849300000000     0.121300000000     0          
H12      H      0.264250000000     0.843500000000     0.132800000000     0          
C13      C      0.368850000000     0.697700000000     0.313650000000     0          
C14      C      0.386650000000     0.662300000000     0.292350000000     0          
H14      H      0.384650000000     0.669850000000     0.258600000000     0          
C15      C      0.407350000000     0.615950000000     0.320000000000     0          
H15      H      0.418600000000     0.591950000000     0.305050000000     0          
C16      C      0.411800000000     0.604250000000     0.369200000000     0          
C17      C      0.394900000000     0.639650000000     0.390500000000     0          
H17      H      0.398100000000     0.632250000000     0.424100000000     0          
C18      C      0.373250000000     0.685950000000     0.363050000000     0          
H18      H      0.361400000000     0.709750000000     0.378200000000     0          
C19      C      0.207850000000     0.832400000000     0.302450000000     0          
C20      C      0.164700000000     0.803850000000     0.341300000000     0          
H20      H      0.169200000000     0.768850000000     0.353550000000     0          
C21      C      0.115200000000     0.825750000000     0.362550000000     0          
H21      H      0.086500000000     0.805600000000     0.389350000000     0          
C22      C      0.107100000000     0.876300000000     0.345350000000     0          
C23      C      0.149400000000     0.905250000000     0.306500000000     0          
H23      H      0.144100000000     0.940200000000     0.294050000000     0          
C24      C      0.199750000000     0.883550000000     0.285450000000     0          
H24      H      0.228950000000     0.903900000000     0.259100000000     0          
C25      C      0.414550000000     0.907700000000     0.001750000000     0          
C26      C      0.435100000000     0.554000000000     0.398600000000     0          
C27      C      0.054000000000     0.900100000000     0.368600000000     0          
Cd1      Cd     0.000000000000     0.500000000000     0.000000000000     0          
Cd2      Cd     0.042705000000     0.556165000000     0.094240000000     0          
O1       O      0.121300000000     0.593100000000     0.028850000000     0          
O2       O      0.030050000000     0.571300000000     0.011575000000     0          
O3       O      0.059000000000     0.953650000000     0.057850000000     0          
O4       O      0.054950000000     0.976350000000     0.123500000000     0          
O5       O      0.453000000000     0.554150000000     0.149850000000     0          
O6       O      0.481800000000     0.625950000000     0.095100000000     0          
C1       C      0.167150000000     0.689200000000     0.292950000000     0          
C2       C      0.137300000000     0.731650000000     0.264700000000     0          
H2       H      0.101850000000     0.745150000000     0.279400000000     0          
C3       C      0.158750000000     0.754450000000     0.215200000000     0          
C4       C      0.209150000000     0.733150000000     0.193750000000     0          
H4       H      0.223200000000     0.747950000000     0.159900000000     0          
C5       C      0.239250000000     0.690550000000     0.220950000000     0          
C6       C      0.218750000000     0.669450000000     0.270700000000     0          
H6       H      0.240200000000     0.641200000000     0.289800000000     0          
C7       C      0.145900000000     0.665300000000     0.345800000000     0          
C8       C      0.080950000000     0.656300000000     0.363700000000     0          
H8       H      0.049400000000     0.667100000000     0.341900000000     0          
C9       C      0.061550000000     0.631900000000     0.412650000000     0          
H9       H      0.017100000000     0.624850000000     0.424050000000     0          
C10      C      0.106850000000     0.617500000000     0.445450000000     0          
C11      C      0.171600000000     0.627800000000     0.428100000000     0          
H11      H      0.202750000000     0.619100000000     0.450250000000     0          
C12      C      0.191100000000     0.650700000000     0.378700000000     0          
H12      H      0.235750000000     0.656500000000     0.367200000000     0          
C13      C      0.131150000000     0.802300000000     0.186350000000     0          
C14      C      0.113350000000     0.837700000000     0.207650000000     0          
H14      H      0.115350000000     0.830150000000     0.241400000000     0          
C15      C      0.092650000000     0.884050000000     0.180000000000     0          
H15      H      0.081400000000     0.908050000000     0.194950000000     0          
C16      C      0.088200000000     0.895750000000     0.130800000000     0          
C17      C      0.105100000000     0.860350000000     0.109500000000     0          
H17      H      0.101900000000     0.867750000000     0.075900000000     0          
C18      C      0.126750000000     0.814050000000     0.136950000000     0          
H18      H      0.138600000000     0.790250000000     0.121800000000     0          
C19      C      0.292150000000     0.667600000000     0.197550000000     0          
C20      C      0.335300000000     0.696150000000     0.158700000000     0          
H20      H      0.330800000000     0.731150000000     0.146450000000     0          
C21      C      0.384800000000     0.674250000000     0.137450000000     0          
H21      H      0.413500000000     0.694400000000     0.110650000000     0          
C22      C      0.392900000000     0.623700000000     0.154650000000     0          
C23      C      0.350600000000     0.594750000000     0.193500000000     0          
H23      H      0.355900000000     0.559800000000     0.205950000000     0          
C24      C      0.300250000000     0.616450000000     0.214550000000     0          
H24      H      0.271050000000     0.596100000000     0.240900000000     0          
C25      C      0.085450000000     0.592300000000     0.498250000000     0          
C26      C      0.064900000000     0.946000000000     0.101400000000     0          
C27      C      0.446000000000     0.599900000000     0.131400000000     0          
Cd2      Cd     0.457295000000     0.943835000000     0.905760000000     0          
O1       O      0.378700000000     0.906900000000     0.971150000000     0          
O2       O      0.469950000000     0.928700000000     0.988425000000     0          
O3       O      0.441000000000     0.546350000000     0.942150000000     0          
O4       O      0.445050000000     0.523650000000     0.876500000000     0          
O5       O      0.047000000000     0.945850000000     0.850150000000     0          
O6       O      0.018200000000     0.874050000000     0.904900000000     0          
C1       C      0.332850000000     0.810800000000     0.707050000000     0          
C2       C      0.362700000000     0.768350000000     0.735300000000     0          
H2       H      0.398150000000     0.754850000000     0.720600000000     0          
C3       C      0.341250000000     0.745550000000     0.784800000000     0          
C4       C      0.290850000000     0.766850000000     0.806250000000     0          
H4       H      0.276800000000     0.752050000000     0.840100000000     0          
C5       C      0.260750000000     0.809450000000     0.779050000000     0          
C6       C      0.281250000000     0.830550000000     0.729300000000     0          
H6       H      0.259800000000     0.858800000000     0.710200000000     0          
C7       C      0.354100000000     0.834700000000     0.654200000000     0          
C8       C      0.419050000000     0.843700000000     0.636300000000     0          
H8       H      0.450600000000     0.832900000000     0.658100000000     0          
C9       C      0.438450000000     0.868100000000     0.587350000000     0          
H9       H      0.482900000000     0.875150000000     0.575950000000     0          
C10      C      0.393150000000     0.882500000000     0.554550000000     0          
C11      C      0.328400000000     0.872200000000     0.571900000000     0          
H11      H      0.297250000000     0.880900000000     0.549750000000     0          
C12      C      0.308900000000     0.849300000000     0.621300000000     0          
H12      H      0.264250000000     0.843500000000     0.632800000000     0          
C13      C      0.368850000000     0.697700000000     0.813650000000     0          
C14      C      0.386650000000     0.662300000000     0.792350000000     0          
H14      H      0.384650000000     0.669850000000     0.758600000000     0          
C15      C      0.407350000000     0.615950000000     0.820000000000     0          
H15      H      0.418600000000     0.591950000000     0.805050000000     0          
C16      C      0.411800000000     0.604250000000     0.869200000000     0          
C17      C      0.394900000000     0.639650000000     0.890500000000     0          
H17      H      0.398100000000     0.632250000000     0.924100000000     0          
C18      C      0.373250000000     0.685950000000     0.863050000000     0          
H18      H      0.361400000000     0.709750000000     0.878200000000     0          
C19      C      0.207850000000     0.832400000000     0.802450000000     0          
C20      C      0.164700000000     0.803850000000     0.841300000000     0          
H20      H      0.169200000000     0.768850000000     0.853550000000     0          
C21      C      0.115200000000     0.825750000000     0.862550000000     0          
H21      H      0.086500000000     0.805600000000     0.889350000000     0          
C22      C      0.107100000000     0.876300000000     0.845350000000     0          
C23      C      0.149400000000     0.905250000000     0.806500000000     0          
H23      H      0.144100000000     0.940200000000     0.794050000000     0          
C24      C      0.199750000000     0.883550000000     0.785450000000     0          
H24      H      0.228950000000     0.903900000000     0.759100000000     0          
C25      C      0.414550000000     0.907700000000     0.501750000000     0          
C26      C      0.435100000000     0.554000000000     0.898600000000     0          
C27      C      0.054000000000     0.900100000000     0.868600000000     0          
Cd1      Cd     0.000000000000     0.500000000000     0.500000000000     0          
Cd2      Cd     0.042705000000     0.556165000000     0.594240000000     0          
O1       O      0.121300000000     0.593100000000     0.528850000000     0          
O2       O      0.030050000000     0.571300000000     0.511575000000     0          
O3       O      0.059000000000     0.953650000000     0.557850000000     0          
O4       O      0.054950000000     0.976350000000     0.623500000000     0          
O5       O      0.453000000000     0.554150000000     0.649850000000     0          
O6       O      0.481800000000     0.625950000000     0.595100000000     0          
C1       C      0.167150000000     0.689200000000     0.792950000000     0          
C2       C      0.137300000000     0.731650000000     0.764700000000     0          
H2       H      0.101850000000     0.745150000000     0.779400000000     0          
C3       C      0.158750000000     0.754450000000     0.715200000000     0          
C4       C      0.209150000000     0.733150000000     0.693750000000     0          
H4       H      0.223200000000     0.747950000000     0.659900000000     0          
C5       C      0.239250000000     0.690550000000     0.720950000000     0          
C6       C      0.218750000000     0.669450000000     0.770700000000     0          
H6       H      0.240200000000     0.641200000000     0.789800000000     0          
C7       C      0.145900000000     0.665300000000     0.845800000000     0          
C8       C      0.080950000000     0.656300000000     0.863700000000     0          
H8       H      0.049400000000     0.667100000000     0.841900000000     0          
C9       C      0.061550000000     0.631900000000     0.912650000000     0          
H9       H      0.017100000000     0.624850000000     0.924050000000     0          
C10      C      0.106850000000     0.617500000000     0.945450000000     0          
C11      C      0.171600000000     0.627800000000     0.928100000000     0          
H11      H      0.202750000000     0.619100000000     0.950250000000     0          
C12      C      0.191100000000     0.650700000000     0.878700000000     0          
H12      H      0.235750000000     0.656500000000     0.867200000000     0          
C13      C      0.131150000000     0.802300000000     0.686350000000     0          
C14      C      0.113350000000     0.837700000000     0.707650000000     0          
H14      H      0.115350000000     0.830150000000     0.741400000000     0          
C15      C      0.092650000000     0.884050000000     0.680000000000     0          
H15      H      0.081400000000     0.908050000000     0.694950000000     0          
C16      C      0.088200000000     0.895750000000     0.630800000000     0          
C17      C      0.105100000000     0.860350000000     0.609500000000     0          
H17      H      0.101900000000     0.867750000000     0.575900000000     0          
C18      C      0.126750000000     0.814050000000     0.636950000000     0          
H18      H      0.138600000000     0.790250000000     0.621800000000     0          
C19      C      0.292150000000     0.667600000000     0.697550000000     0          
C20      C      0.335300000000     0.696150000000     0.658700000000     0          
H20      H      0.330800000000     0.731150000000     0.646450000000     0          
C21      C      0.384800000000     0.674250000000     0.637450000000     0          
H21      H      0.413500000000     0.694400000000     0.610650000000     0          
C22      C      0.392900000000     0.623700000000     0.654650000000     0          
C23      C      0.350600000000     0.594750000000     0.693500000000     0          
H23      H      0.355900000000     0.559800000000     0.705950000000     0          
C24      C      0.300250000000     0.616450000000     0.714550000000     0          
H24      H      0.271050000000     0.596100000000     0.740900000000     0          
C25      C      0.085450000000     0.592300000000     0.998250000000     0          
C26      C      0.064900000000     0.946000000000     0.601400000000     0          
C27      C      0.446000000000     0.599900000000     0.631400000000     0          
Cd2      Cd     0.957295000000     0.443835000000     0.405760000000     0          
O1       O      0.878700000000     0.406900000000     0.471150000000     0          
O2       O      0.969950000000     0.428700000000     0.488425000000     0          
O3       O      0.941000000000     0.046350000000     0.442150000000     0          
O4       O      0.945050000000     0.023650000000     0.376500000000     0          
O5       O      0.547000000000     0.445850000000     0.350150000000     0          
O6       O      0.518200000000     0.374050000000     0.404900000000     0          
C1       C      0.832850000000     0.310800000000     0.207050000000     0          
C2       C      0.862700000000     0.268350000000     0.235300000000     0          
H2       H      0.898150000000     0.254850000000     0.220600000000     0          
C3       C      0.841250000000     0.245550000000     0.284800000000     0          
C4       C      0.790850000000     0.266850000000     0.306250000000     0          
H4       H      0.776800000000     0.252050000000     0.340100000000     0          
C5       C      0.760750000000     0.309450000000     0.279050000000     0          
C6       C      0.781250000000     0.330550000000     0.229300000000     0          
H6       H      0.759800000000     0.358800000000     0.210200000000     0          
C7       C      0.854100000000     0.334700000000     0.154200000000     0          
C8       C      0.919050000000     0.343700000000     0.136300000000     0          
H8       H      0.950600000000     0.332900000000     0.158100000000     0          
C9       C      0.938450000000     0.368100000000     0.087350000000     0          
H9       H      0.982900000000     0.375150000000     0.075950000000     0          
C10      C      0.893150000000     0.382500000000     0.054550000000     0          
C11      C      0.828400000000     0.372200000000     0.071900000000     0          
H11      H      0.797250000000     0.380900000000     0.049750000000     0          
C12      C      0.808900000000     0.349300000000     0.121300000000     0          
H12      H      0.764250000000     0.343500000000     0.132800000000     0          
C13      C      0.868850000000     0.197700000000     0.313650000000     0          
C14      C      0.886650000000     0.162300000000     0.292350000000     0          
H14      H      0.884650000000     0.169850000000     0.258600000000     0          
C15      C      0.907350000000     0.115950000000     0.320000000000     0          
H15      H      0.918600000000     0.091950000000     0.305050000000     0          
C16      C      0.911800000000     0.104250000000     0.369200000000     0          
C17      C      0.894900000000     0.139650000000     0.390500000000     0          
H17      H      0.898100000000     0.132250000000     0.424100000000     0          
C18      C      0.873250000000     0.185950000000     0.363050000000     0          
H18      H      0.861400000000     0.209750000000     0.378200000000     0          
C19      C      0.707850000000     0.332400000000     0.302450000000     0          
C20      C      0.664700000000     0.303850000000     0.341300000000     0          
H20      H      0.669200000000     0.268850000000     0.353550000000     0          
C21      C      0.615200000000     0.325750000000     0.362550000000     0          
H21      H      0.586500000000     0.305600000000     0.389350000000     0          
C22      C      0.607100000000     0.376300000000     0.345350000000     0          
C23      C      0.649400000000     0.405250000000     0.306500000000     0          
H23      H      0.644100000000     0.440200000000     0.294050000000     0          
C24      C      0.699750000000     0.383550000000     0.285450000000     0          
H24      H      0.728950000000     0.403900000000     0.259100000000     0          
C25      C      0.914550000000     0.407700000000     0.001750000000     0          
C26      C      0.935100000000     0.054000000000     0.398600000000     0          
C27      C      0.554000000000     0.400100000000     0.368600000000     0          
Cd1      Cd     0.500000000000     0.000000000000     0.000000000000     0          
Cd2      Cd     0.542705000000     0.056165000000     0.094240000000     0          
O1       O      0.621300000000     0.093100000000     0.028850000000     0          
O2       O      0.530050000000     0.071300000000     0.011575000000     0          
O3       O      0.559000000000     0.453650000000     0.057850000000     0          
O4       O      0.554950000000     0.476350000000     0.123500000000     0          
O5       O      0.953000000000     0.054150000000     0.149850000000     0          
O6       O      0.981800000000     0.125950000000     0.095100000000     0          
C1       C      0.667150000000     0.189200000000     0.292950000000     0          
C2       C      0.637300000000     0.231650000000     0.264700000000     0          
H2       H      0.601850000000     0.245150000000     0.279400000000     0          
C3       C      0.658750000000     0.254450000000     0.215200000000     0          
C4       C      0.709150000000     0.233150000000     0.193750000000     0          
H4       H      0.723200000000     0.247950000000     0.159900000000     0          
C5       C      0.739250000000     0.190550000000     0.220950000000     0          
C6       C      0.718750000000     0.169450000000     0.270700000000     0          
H6       H      0.740200000000     0.141200000000     0.289800000000     0          
C7       C      0.645900000000     0.165300000000     0.345800000000     0          
C8       C      0.580950000000     0.156300000000     0.363700000000     0          
H8       H      0.549400000000     0.167100000000     0.341900000000     0          
C9       C      0.561550000000     0.131900000000     0.412650000000     0          
H9       H      0.517100000000     0.124850000000     0.424050000000     0          
C10      C      0.606850000000     0.117500000000     0.445450000000     0          
C11      C      0.671600000000     0.127800000000     0.428100000000     0          
H11      H      0.702750000000     0.119100000000     0.450250000000     0          
C12      C      0.691100000000     0.150700000000     0.378700000000     0          
H12      H      0.735750000000     0.156500000000     0.367200000000     0          
C13      C      0.631150000000     0.302300000000     0.186350000000     0          
C14      C      0.613350000000     0.337700000000     0.207650000000     0          
H14      H      0.615350000000     0.330150000000     0.241400000000     0          
C15      C      0.592650000000     0.384050000000     0.180000000000     0          
H15      H      0.581400000000     0.408050000000     0.194950000000     0          
C16      C      0.588200000000     0.395750000000     0.130800000000     0          
C17      C      0.605100000000     0.360350000000     0.109500000000     0          
H17      H      0.601900000000     0.367750000000     0.075900000000     0          
C18      C      0.626750000000     0.314050000000     0.136950000000     0          
H18      H      0.638600000000     0.290250000000     0.121800000000     0          
C19      C      0.792150000000     0.167600000000     0.197550000000     0          
C20      C      0.835300000000     0.196150000000     0.158700000000     0          
H20      H      0.830800000000     0.231150000000     0.146450000000     0          
C21      C      0.884800000000     0.174250000000     0.137450000000     0          
H21      H      0.913500000000     0.194400000000     0.110650000000     0          
C22      C      0.892900000000     0.123700000000     0.154650000000     0          
C23      C      0.850600000000     0.094750000000     0.193500000000     0          
H23      H      0.855900000000     0.059800000000     0.205950000000     0          
C24      C      0.800250000000     0.116450000000     0.214550000000     0          
H24      H      0.771050000000     0.096100000000     0.240900000000     0          
C25      C      0.585450000000     0.092300000000     0.498250000000     0          
C26      C      0.564900000000     0.446000000000     0.101400000000     0          
C27      C      0.946000000000     0.099900000000     0.131400000000     0          
Cd2      Cd     0.957295000000     0.443835000000     0.905760000000     0          
O1       O      0.878700000000     0.406900000000     0.971150000000     0          
O2       O      0.969950000000     0.428700000000     0.988425000000     0          
O3       O      0.941000000000     0.046350000000     0.942150000000     0          
O4       O      0.945050000000     0.023650000000     0.876500000000     0          
O5       O      0.547000000000     0.445850000000     0.850150000000     0          
O6       O      0.518200000000     0.374050000000     0.904900000000     0          
C1       C      0.832850000000     0.310800000000     0.707050000000     0          
C2       C      0.862700000000     0.268350000000     0.735300000000     0          
H2       H      0.898150000000     0.254850000000     0.720600000000     0          
C3       C      0.841250000000     0.245550000000     0.784800000000     0          
C4       C      0.790850000000     0.266850000000     0.806250000000     0          
H4       H      0.776800000000     0.252050000000     0.840100000000     0          
C5       C      0.760750000000     0.309450000000     0.779050000000     0          
C6       C      0.781250000000     0.330550000000     0.729300000000     0          
H6       H      0.759800000000     0.358800000000     0.710200000000     0          
C7       C      0.854100000000     0.334700000000     0.654200000000     0          
C8       C      0.919050000000     0.343700000000     0.636300000000     0          
H8       H      0.950600000000     0.332900000000     0.658100000000     0          
C9       C      0.938450000000     0.368100000000     0.587350000000     0          
H9       H      0.982900000000     0.375150000000     0.575950000000     0          
C10      C      0.893150000000     0.382500000000     0.554550000000     0          
C11      C      0.828400000000     0.372200000000     0.571900000000     0          
H11      H      0.797250000000     0.380900000000     0.549750000000     0          
C12      C      0.808900000000     0.349300000000     0.621300000000     0          
H12      H      0.764250000000     0.343500000000     0.632800000000     0          
C13      C      0.868850000000     0.197700000000     0.813650000000     0          
C14      C      0.886650000000     0.162300000000     0.792350000000     0          
H14      H      0.884650000000     0.169850000000     0.758600000000     0          
C15      C      0.907350000000     0.115950000000     0.820000000000     0          
H15      H      0.918600000000     0.091950000000     0.805050000000     0          
C16      C      0.911800000000     0.104250000000     0.869200000000     0          
C17      C      0.894900000000     0.139650000000     0.890500000000     0          
H17      H      0.898100000000     0.132250000000     0.924100000000     0          
C18      C      0.873250000000     0.185950000000     0.863050000000     0          
H18      H      0.861400000000     0.209750000000     0.878200000000     0          
C19      C      0.707850000000     0.332400000000     0.802450000000     0          
C20      C      0.664700000000     0.303850000000     0.841300000000     0          
H20      H      0.669200000000     0.268850000000     0.853550000000     0          
C21      C      0.615200000000     0.325750000000     0.862550000000     0          
H21      H      0.586500000000     0.305600000000     0.889350000000     0          
C22      C      0.607100000000     0.376300000000     0.845350000000     0          
C23      C      0.649400000000     0.405250000000     0.806500000000     0          
H23      H      0.644100000000     0.440200000000     0.794050000000     0          
C24      C      0.699750000000     0.383550000000     0.785450000000     0          
H24      H      0.728950000000     0.403900000000     0.759100000000     0          
C25      C      0.914550000000     0.407700000000     0.501750000000     0          
C26      C      0.935100000000     0.054000000000     0.898600000000     0          
C27      C      0.554000000000     0.400100000000     0.868600000000     0          
Cd1      Cd     0.500000000000     0.000000000000     0.500000000000     0          
Cd2      Cd     0.542705000000     0.056165000000     0.594240000000     0          
O1       O      0.621300000000     0.093100000000     0.528850000000     0          
O2       O      0.530050000000     0.071300000000     0.511575000000     0          
O3       O      0.559000000000     0.453650000000     0.557850000000     0          
O4       O      0.554950000000     0.476350000000     0.623500000000     0          
O5       O      0.953000000000     0.054150000000     0.649850000000     0          
O6       O      0.981800000000     0.125950000000     0.595100000000     0          
C1       C      0.667150000000     0.189200000000     0.792950000000     0          
C2       C      0.637300000000     0.231650000000     0.764700000000     0          
H2       H      0.601850000000     0.245150000000     0.779400000000     0          
C3       C      0.658750000000     0.254450000000     0.715200000000     0          
C4       C      0.709150000000     0.233150000000     0.693750000000     0          
H4       H      0.723200000000     0.247950000000     0.659900000000     0          
C5       C      0.739250000000     0.190550000000     0.720950000000     0          
C6       C      0.718750000000     0.169450000000     0.770700000000     0          
H6       H      0.740200000000     0.141200000000     0.789800000000     0          
C7       C      0.645900000000     0.165300000000     0.845800000000     0          
C8       C      0.580950000000     0.156300000000     0.863700000000     0          
H8       H      0.549400000000     0.167100000000     0.841900000000     0          
C9       C      0.561550000000     0.131900000000     0.912650000000     0          
H9       H      0.517100000000     0.124850000000     0.924050000000     0          
C10      C      0.606850000000     0.117500000000     0.945450000000     0          
C11      C      0.671600000000     0.127800000000     0.928100000000     0          
H11      H      0.702750000000     0.119100000000     0.950250000000     0          
C12      C      0.691100000000     0.150700000000     0.878700000000     0          
H12      H      0.735750000000     0.156500000000     0.867200000000     0          
C13      C      0.631150000000     0.302300000000     0.686350000000     0          
C14      C      0.613350000000     0.337700000000     0.707650000000     0          
H14      H      0.615350000000     0.330150000000     0.741400000000     0          
C15      C      0.592650000000     0.384050000000     0.680000000000     0          
H15      H      0.581400000000     0.408050000000     0.694950000000     0          
C16      C      0.588200000000     0.395750000000     0.630800000000     0          
C17      C      0.605100000000     0.360350000000     0.609500000000     0          
H17      H      0.601900000000     0.367750000000     0.575900000000     0          
C18      C      0.626750000000     0.314050000000     0.636950000000     0          
H18      H      0.638600000000     0.290250000000     0.621800000000     0          
C19      C      0.792150000000     0.167600000000     0.697550000000     0          
C20      C      0.835300000000     0.196150000000     0.658700000000     0          
H20      H      0.830800000000     0.231150000000     0.646450000000     0          
C21      C      0.884800000000     0.174250000000     0.637450000000     0          
H21      H      0.913500000000     0.194400000000     0.610650000000     0          
C22      C      0.892900000000     0.123700000000     0.654650000000     0          
C23      C      0.850600000000     0.094750000000     0.693500000000     0          
H23      H      0.855900000000     0.059800000000     0.705950000000     0          
C24      C      0.800250000000     0.116450000000     0.714550000000     0          
H24      H      0.771050000000     0.096100000000     0.740900000000     0          
C25      C      0.585450000000     0.092300000000     0.998250000000     0          
C26      C      0.564900000000     0.446000000000     0.601400000000     0          
C27      C      0.946000000000     0.099900000000     0.631400000000     0          
Cd2      Cd     0.957295000000     0.943835000000     0.405760000000     0          
O1       O      0.878700000000     0.906900000000     0.471150000000     0          
O2       O      0.969950000000     0.928700000000     0.488425000000     0          
O3       O      0.941000000000     0.546350000000     0.442150000000     0          
O4       O      0.945050000000     0.523650000000     0.376500000000     0          
O5       O      0.547000000000     0.945850000000     0.350150000000     0          
O6       O      0.518200000000     0.874050000000     0.404900000000     0          
C1       C      0.832850000000     0.810800000000     0.207050000000     0          
C2       C      0.862700000000     0.768350000000     0.235300000000     0          
H2       H      0.898150000000     0.754850000000     0.220600000000     0          
C3       C      0.841250000000     0.745550000000     0.284800000000     0          
C4       C      0.790850000000     0.766850000000     0.306250000000     0          
H4       H      0.776800000000     0.752050000000     0.340100000000     0          
C5       C      0.760750000000     0.809450000000     0.279050000000     0          
C6       C      0.781250000000     0.830550000000     0.229300000000     0          
H6       H      0.759800000000     0.858800000000     0.210200000000     0          
C7       C      0.854100000000     0.834700000000     0.154200000000     0          
C8       C      0.919050000000     0.843700000000     0.136300000000     0          
H8       H      0.950600000000     0.832900000000     0.158100000000     0          
C9       C      0.938450000000     0.868100000000     0.087350000000     0          
H9       H      0.982900000000     0.875150000000     0.075950000000     0          
C10      C      0.893150000000     0.882500000000     0.054550000000     0          
C11      C      0.828400000000     0.872200000000     0.071900000000     0          
H11      H      0.797250000000     0.880900000000     0.049750000000     0          
C12      C      0.808900000000     0.849300000000     0.121300000000     0          
H12      H      0.764250000000     0.843500000000     0.132800000000     0          
C13      C      0.868850000000     0.697700000000     0.313650000000     0          
C14      C      0.886650000000     0.662300000000     0.292350000000     0          
H14      H      0.884650000000     0.669850000000     0.258600000000     0          
C15      C      0.907350000000     0.615950000000     0.320000000000     0          
H15      H      0.918600000000     0.591950000000     0.305050000000     0          
C16      C      0.911800000000     0.604250000000     0.369200000000     0          
C17      C      0.894900000000     0.639650000000     0.390500000000     0          
H17      H      0.898100000000     0.632250000000     0.424100000000     0          
C18      C      0.873250000000     0.685950000000     0.363050000000     0          
H18      H      0.861400000000     0.709750000000     0.378200000000     0          
C19      C      0.707850000000     0.832400000000     0.302450000000     0          
C20      C      0.664700000000     0.803850000000     0.341300000000     0          
H20      H      0.669200000000     0.768850000000     0.353550000000     0          
C21      C      0.615200000000     0.825750000000     0.362550000000     0          
H21      H      0.586500000000     0.805600000000     0.389350000000     0          
C22      C      0.607100000000     0.876300000000     0.345350000000     0          
C23      C      0.649400000000     0.905250000000     0.306500000000     0          
H23      H      0.644100000000     0.940200000000     0.294050000000     0          
C24      C      0.699750000000     0.883550000000     0.285450000000     0          
H24      H      0.728950000000     0.903900000000     0.259100000000     0          
C25      C      0.914550000000     0.907700000000     0.001750000000     0          
C26      C      0.935100000000     0.554000000000     0.398600000000     0          
C27      C      0.554000000000     0.900100000000     0.368600000000     0          
Cd1      Cd     0.500000000000     0.500000000000     0.000000000000     0          
Cd2      Cd     0.542705000000     0.556165000000     0.094240000000     0          
O1       O      0.621300000000     0.593100000000     0.028850000000     0          
O2       O      0.530050000000     0.571300000000     0.011575000000     0          
O3       O      0.559000000000     0.953650000000     0.057850000000     0          
O4       O      0.554950000000     0.976350000000     0.123500000000     0          
O5       O      0.953000000000     0.554150000000     0.149850000000     0          
O6       O      0.981800000000     0.625950000000     0.095100000000     0          
C1       C      0.667150000000     0.689200000000     0.292950000000     0          
C2       C      0.637300000000     0.731650000000     0.264700000000     0          
H2       H      0.601850000000     0.745150000000     0.279400000000     0          
C3       C      0.658750000000     0.754450000000     0.215200000000     0          
C4       C      0.709150000000     0.733150000000     0.193750000000     0          
H4       H      0.723200000000     0.747950000000     0.159900000000     0          
C5       C      0.739250000000     0.690550000000     0.220950000000     0          
C6       C      0.718750000000     0.669450000000     0.270700000000     0          
H6       H      0.740200000000     0.641200000000     0.289800000000     0          
C7       C      0.645900000000     0.665300000000     0.345800000000     0          
C8       C      0.580950000000     0.656300000000     0.363700000000     0          
H8       H      0.549400000000     0.667100000000     0.341900000000     0          
C9       C      0.561550000000     0.631900000000     0.412650000000     0          
H9       H      0.517100000000     0.624850000000     0.424050000000     0          
C10      C      0.606850000000     0.617500000000     0.445450000000     0          
C11      C      0.671600000000     0.627800000000     0.428100000000     0          
H11      H      0.702750000000     0.619100000000     0.450250000000     0          
C12      C      0.691100000000     0.650700000000     0.378700000000     0          
H12      H      0.735750000000     0.656500000000     0.367200000000     0          
C13      C      0.631150000000     0.802300000000     0.186350000000     0          
C14      C      0.613350000000     0.837700000000     0.207650000000     0          
H14      H      0.615350000000     0.830150000000     0.241400000000     0          
C15      C      0.592650000000     0.884050000000     0.180000000000     0          
H15      H      0.581400000000     0.908050000000     0.194950000000     0          
C16      C      0.588200000000     0.895750000000     0.130800000000     0          
C17      C      0.605100000000     0.860350000000     0.109500000000     0          
H17      H      0.601900000000     0.867750000000     0.075900000000     0          
C18      C      0.626750000000     0.814050000000     0.136950000000     0          
H18      H      0.638600000000     0.790250000000     0.121800000000     0          
C19      C      0.792150000000     0.667600000000     0.197550000000     0          
C20      C      0.835300000000     0.696150000000     0.158700000000     0          
H20      H      0.830800000000     0.731150000000     0.146450000000     0          
C21      C      0.884800000000     0.674250000000     0.137450000000     0          
H21      H      0.913500000000     0.694400000000     0.110650000000     0          
C22      C      0.892900000000     0.623700000000     0.154650000000     0          
C23      C      0.850600000000     0.594750000000     0.193500000000     0          
H23      H      0.855900000000     0.559800000000     0.205950000000     0          
C24      C      0.800250000000     0.616450000000     0.214550000000     0          
H24      H      0.771050000000     0.596100000000     0.240900000000     0          
C25      C      0.585450000000     0.592300000000     0.498250000000     0          
C26      C      0.564900000000     0.946000000000     0.101400000000     0          
C27      C      0.946000000000     0.599900000000     0.131400000000     0          
Cd2      Cd     0.957295000000     0.943835000000     0.905760000000     0          
O1       O      0.878700000000     0.906900000000     0.971150000000     0          
O2       O      0.969950000000     0.928700000000     0.988425000000     0          
O3       O      0.941000000000     0.546350000000     0.942150000000     0          
O4       O      0.945050000000     0.523650000000     0.876500000000     0          
O5       O      0.547000000000     0.945850000000     0.850150000000     0          
O6       O      0.518200000000     0.874050000000     0.904900000000     0          
C1       C      0.832850000000     0.810800000000     0.707050000000     0          
C2       C      0.862700000000     0.768350000000     0.735300000000     0          
H2       H      0.898150000000     0.754850000000     0.720600000000     0          
C3       C      0.841250000000     0.745550000000     0.784800000000     0          
C4       C      0.790850000000     0.766850000000     0.806250000000     0          
H4       H      0.776800000000     0.752050000000     0.840100000000     0          
C5       C      0.760750000000     0.809450000000     0.779050000000     0          
C6       C      0.781250000000     0.830550000000     0.729300000000     0          
H6       H      0.759800000000     0.858800000000     0.710200000000     0          
C7       C      0.854100000000     0.834700000000     0.654200000000     0          
C8       C      0.919050000000     0.843700000000     0.636300000000     0          
H8       H      0.950600000000     0.832900000000     0.658100000000     0          
C9       C      0.938450000000     0.868100000000     0.587350000000     0          
H9       H      0.982900000000     0.875150000000     0.575950000000     0          
C10      C      0.893150000000     0.882500000000     0.554550000000     0          
C11      C      0.828400000000     0.872200000000     0.571900000000     0          
H11      H      0.797250000000     0.880900000000     0.549750000000     0          
C12      C      0.808900000000     0.849300000000     0.621300000000     0          
H12      H      0.764250000000     0.843500000000     0.632800000000     0          
C13      C      0.868850000000     0.697700000000     0.813650000000     0          
C14      C      0.886650000000     0.662300000000     0.792350000000     0          
H14      H      0.884650000000     0.669850000000     0.758600000000     0          
C15      C      0.907350000000     0.615950000000     0.820000000000     0          
H15      H      0.918600000000     0.591950000000     0.805050000000     0          
C16      C      0.911800000000     0.604250000000     0.869200000000     0          
C17      C      0.894900000000     0.639650000000     0.890500000000     0          
H17      H      0.898100000000     0.632250000000     0.924100000000     0          
C18      C      0.873250000000     0.685950000000     0.863050000000     0          
H18      H      0.861400000000     0.709750000000     0.878200000000     0          
C19      C      0.707850000000     0.832400000000     0.802450000000     0          
C20      C      0.664700000000     0.803850000000     0.841300000000     0          
H20      H      0.669200000000     0.768850000000     0.853550000000     0          
C21      C      0.615200000000     0.825750000000     0.862550000000     0          
H21      H      0.586500000000     0.805600000000     0.889350000000     0          
C22      C      0.607100000000     0.876300000000     0.845350000000     0          
C23      C      0.649400000000     0.905250000000     0.806500000000     0          
H23      H      0.644100000000     0.940200000000     0.794050000000     0          
C24      C      0.699750000000     0.883550000000     0.785450000000     0          
H24      H      0.728950000000     0.903900000000     0.759100000000     0          
C25      C      0.914550000000     0.907700000000     0.501750000000     0          
C26      C      0.935100000000     0.554000000000     0.898600000000     0          
C27      C      0.554000000000     0.900100000000     0.868600000000     0          
Cd1      Cd     0.500000000000     0.500000000000     0.500000000000     0          
Cd2      Cd     0.542705000000     0.556165000000     0.594240000000     0          
O1       O      0.621300000000     0.593100000000     0.528850000000     0          
O2       O      0.530050000000     0.571300000000     0.511575000000     0          
O3       O      0.559000000000     0.953650000000     0.557850000000     0          
O4       O      0.554950000000     0.976350000000     0.623500000000     0          
O5       O      0.953000000000     0.554150000000     0.649850000000     0          
O6       O      0.981800000000     0.625950000000     0.595100000000     0          
C1       C      0.667150000000     0.689200000000     0.792950000000     0          
C2       C      0.637300000000     0.731650000000     0.764700000000     0          
H2       H      0.601850000000     0.745150000000     0.779400000000     0          
C3       C      0.658750000000     0.754450000000     0.715200000000     0          
C4       C      0.709150000000     0.733150000000     0.693750000000     0          
H4       H      0.723200000000     0.747950000000     0.659900000000     0          
C5       C      0.739250000000     0.690550000000     0.720950000000     0          
C6       C      0.718750000000     0.669450000000     0.770700000000     0          
H6       H      0.740200000000     0.641200000000     0.789800000000     0          
C7       C      0.645900000000     0.665300000000     0.845800000000     0          
C8       C      0.580950000000     0.656300000000     0.863700000000     0          
H8       H      0.549400000000     0.667100000000     0.841900000000     0          
C9       C      0.561550000000     0.631900000000     0.912650000000     0          
H9       H      0.517100000000     0.624850000000     0.924050000000     0          
C10      C      0.606850000000     0.617500000000     0.945450000000     0          
C11      C      0.671600000000     0.627800000000     0.928100000000     0          
H11      H      0.702750000000     0.619100000000     0.950250000000     0          
C12      C      0.691100000000     0.650700000000     0.878700000000     0          
H12      H      0.735750000000     0.656500000000     0.867200000000     0          
C13      C      0.631150000000     0.802300000000     0.686350000000     0          
C14      C      0.613350000000     0.837700000000     0.707650000000     0          
H14      H      0.615350000000     0.830150000000     0.741400000000     0          
C15      C      0.592650000000     0.884050000000     0.680000000000     0          
H15      H      0.581400000000     0.908050000000     0.694950000000     0          
C16      C      0.588200000000     0.895750000000     0.630800000000     0          
C17      C      0.605100000000     0.860350000000     0.609500000000     0          
H17      H      0.601900000000     0.867750000000     0.575900000000     0          
C18      C      0.626750000000     0.814050000000     0.636950000000     0          
H18      H      0.638600000000     0.790250000000     0.621800000000     0          
C19      C      0.792150000000     0.667600000000     0.697550000000     0          
C20      C      0.835300000000     0.696150000000     0.658700000000     0          
H20      H      0.830800000000     0.731150000000     0.646450000000     0          
C21      C      0.884800000000     0.674250000000     0.637450000000     0          
H21      H      0.913500000000     0.694400000000     0.610650000000     0          
C22      C      0.892900000000     0.623700000000     0.654650000000     0          
C23      C      0.850600000000     0.594750000000     0.693500000000     0          
H23      H      0.855900000000     0.559800000000     0.705950000000     0          
C24      C      0.800250000000     0.616450000000     0.714550000000     0          
H24      H      0.771050000000     0.596100000000     0.740900000000     0          
C25      C      0.585450000000     0.592300000000     0.998250000000     0          
C26      C      0.564900000000     0.946000000000     0.601400000000     0          
C27      C      0.946000000000     0.599900000000     0.631400000000     0          


